<?xml version="1.0" encoding="UTF-8"?>

<!-- generated on Sun Dec 20 13:40:20 2020 by Eclipse SUMO sumo Version 1.8.0
<configuration xmlns:xsi="http://www.w3.org/2001/XMLSchema-instance" xsi:noNamespaceSchemaLocation="http://sumo.dlr.de/xsd/sumoConfiguration.xsd">

    <input>
        <net-file value="/Users/ayushs/dev/warpdriv-simulation/2020-12-20-13-37-59/osm.net.xml"/>
        <route-files value="/Users/ayushs/dev/warpdriv-simulation/2020-12-20-13-37-59/trips.trips.xml"/>
        <additional-files value="/Users/ayushs/dev/warpdriv-simulation/2020-12-20-13-37-59/osm_stops.add.xml"/>
    </input>

    <output>
        <vehroute-output value="/Users/ayushs/dev/warpdriv-simulation/2020-12-20-13-37-59/vehroutes.xml"/>
        <stop-output value="/Users/ayushs/dev/warpdriv-simulation/2020-12-20-13-37-59/stopinfos.xml"/>
    </output>

    <time>
        <begin value="0"/>
    </time>

    <processing>
        <ignore-route-errors value="true"/>
    </processing>

    <routing>
        <device.rerouting.adaptation-interval value="0"/>
    </routing>

    <report>
        <error-log value="/Users/ayushs/dev/warpdriv-simulation/2020-12-20-13-37-59/trips.trips.xml.errorlog"/>
        <no-step-log value="true"/>
    </report>

</configuration>
-->

<routes xmlns:xsi="http://www.w3.org/2001/XMLSchema-instance" xsi:noNamespaceSchemaLocation="http://sumo.dlr.de/xsd/routes_file.xsd">
    <vehicle id="14_bus_7:0" type="pt_bus" depart="136.00" departLane="0" arrival="238.00">
        <route edges="404992838 518181559#1 518181559#2 398400824 404992836 398400825 -398400438"/>
        <stop busStop="7833716168" duration="30.00"/>
    </vehicle>

    <vehicle id="8_bus_5:0" type="pt_bus" depart="58.00" departLane="0" arrival="297.00">
        <route edges="-288116300#8 -288116300#7 -288116300#6 -288116300#5 -288116300#4 -288116300#3 -288116300#2 -288116300#1 607284021#1 607284021#2 607284021#3 607284021#4 607284021#6 607284021#7 607284021#8 607284021#9 607284021#10 607284021#11 607788597#0 607788597#1 607788597#2 607788597#3"/>
        <stop busStop="-7836553535" duration="30.00"/>
        <stop busStop="-7836553533" duration="30.00"/>
        <stop busStop="7844566339" duration="30.00"/>
    </vehicle>

    <vehicle id="15_bus_7:1" type="pt_bus" depart="142.00" departLane="0" arrival="314.00">
        <route edges="404992838 518181559#1 518181559#2 398400824 404992836 398400825 -398400438"/>
        <stop busStop="7833716168" duration="30.00"/>
    </vehicle>

    <vehicle id="16_bus_Rapid_7:0" type="pt_bus" depart="165.00" departLane="0" arrival="391.00">
        <route edges="404992838 518181559#1 518181559#2 398400824 404992836 398400825 -398400438"/>
        <stop busStop="7833716168" duration="30.00"/>
    </vehicle>

    <vehicle id="9_bus_5:1" type="pt_bus" depart="93.00" departLane="0" arrival="488.00">
        <route edges="607284020#0 607284020#1 607284019 392360767#0 392360767#1 392360767#2 391441052#1 391441052#2 391441052#3 391441052#4 391441052#5 391441052#6 391441052#7 391441052#8 391441052#9 156414173#0 156414173#1 156414173#2 156414173#3 616846320#0 616846320#2 616846320#3 616846320#4 724343163#0 724343163#1 288116300#1 288116300#2 288116300#3 288116300#4 288116300#5 288116300#6 288116300#7 288116300#8"/>
        <stop busStop="7844566339@11773989" duration="30.00"/>
        <stop busStop="1419803129" duration="30.00"/>
        <stop busStop="5002036674" duration="30.00"/>
        <stop busStop="7836385648" duration="30.00"/>
        <stop busStop="7836553532" duration="30.00"/>
        <stop busStop="7836553534" duration="30.00"/>
    </vehicle>

    <vehicle id="42_bus_210:0" type="pt_bus" depart="517.00" departLane="0" arrival="613.00">
        <route edges="-398235803#0 398235803#0 398235803#1 398235803#3 398235803#4 398235803#5 398235803#6 398235789#0 -398235789#0"/>
        <stop busStop="-6278468524" duration="30.00"/>
        <stop busStop="-6278468526" duration="30.00"/>
    </vehicle>

    <vehicle id="41_bus_102:0" type="pt_bus" depart="508.00" departLane="0" arrival="645.00">
        <route edges="165665944#0 165665944#1 165665944#2 165665944#3 165665944#4 165665944#5 -398235789#1 -398235789#0 -398235803#6 -398235803#5 -398235803#4 -398235803#3 -398235803#1 -398235803#0 -398235798 -522644537"/>
    </vehicle>

    <vehicle id="1_bus_Rapid_12:1" type="pt_bus" depart="15.00" departLane="0" arrival="654.00">
        <route edges="398605039#1 398605039#3 398605035#0 398605035#1 398605034 398605038#0 398605038#1 398605038#2 398605038#3 398605038#5 398605036#0 383987420#1 383987420#2 398784747 400219884 398784751#0 400219883 398605037 398783441#1 398783441#2 400225296 398784749 398784748 398784743 398784750 400225297 398783440#0 398783440#2 398783438#0 398783438#1 288116301#0 288116301#1 288116301#4 288116301#6 288116301#7 288116301#8 288116301#9 288116301#10 398783439#0 398783439#2 398779237#0 398779237#1 159156079 -398778795 -350625891 -398778791#2 -398778791#1 -398778788#0 -404964747#2 -404964747#1 -404964747#0 -404964745#1 -398778797#1 -398778797#0 -404964746 -398414275 -398414264 -403828583 -398414260 -826085998 -398414301 -170301025#2 -170301025#0 -398414289 -398414283#0 -398414254 -398414286"/>
        <stop busStop="7814246322" duration="30.00"/>
        <stop busStop="1419803124" duration="30.00"/>
        <stop busStop="7814246323" duration="30.00"/>
        <stop busStop="1419803141" duration="30.00"/>
        <stop busStop="-1419803127" duration="30.00"/>
        <stop busStop="-7814246324" duration="30.00"/>
    </vehicle>

    <vehicle id="4_bus_8:0" type="pt_bus" depart="27.00" departLane="0" arrival="669.00">
        <route edges="398414286 398414254 398414283#0 398414289 170301025#0 170301025#2 398414301 826085998 398414260 403828583 398414264 398414275 404964746 398778797#0 398778797#1 404964745#1 404964747#0 404964747#1 404964747#2 398778788#0 -384177635#1 -384177635#0 -398771137#0 -37689821#4 -37689821#3 -37689821#2 -37689821#1 -37689821#0 -398771138#1 -398771138#0 -404964730 -398771139#3 -398771139#2 -398771139#0 -398771136#1 -398771136#0 -398770659#2 -398770659#1 -759468526 -404964732#1 -404964732#0 -398770660#1 -398770660#0 -398770653#2 -398770653#1 -398770653#0 -398770661#2 -398770661#1 -398770661#0 -398251727 -398251732#2 -398251732#1 -398251732#0"/>
        <stop busStop="7814287977" duration="30.00"/>
        <stop busStop="7830899741" duration="30.00"/>
        <stop busStop="1419803136" duration="30.00"/>
        <stop busStop="-7830975319" duration="30.00"/>
        <stop busStop="-7830975320" duration="30.00"/>
        <stop busStop="-7830975323" duration="30.00"/>
        <stop busStop="-7830975329" duration="30.00"/>
    </vehicle>

    <vehicle id="5_bus_8:1" type="pt_bus" depart="47.00" departLane="0" arrival="807.00">
        <route edges="398414286 398414254 398414283#0 398414289 170301025#0 170301025#2 398414301 826085998 398414260 403828583 398414264 398414275 404964746 398778797#0 398778797#1 404964745#1 404964747#0 404964747#1 404964747#2 398778788#0 -384177635#1 -384177635#0 -398771137#0 -37689821#4 -37689821#3 -37689821#2 -37689821#1 -37689821#0 -398771138#1 -398771138#0 -404964730 -398771139#3 -398771139#2 -398771139#0 -398771136#1 -398771136#0 -398770659#2 -398770659#1 -759468526 -404964732#1 -404964732#0 -398770660#1 -398770660#0 -398770653#2 -398770653#1 -398770653#0 -398770661#2 -398770661#1 -398770661#0 -398251727 -398251732#2 -398251732#1 -398251732#0"/>
        <stop busStop="7814287977" duration="30.00"/>
        <stop busStop="7830899741" duration="30.00"/>
        <stop busStop="1419803136" duration="30.00"/>
        <stop busStop="-7830975319" duration="30.00"/>
        <stop busStop="-7830975320" duration="30.00"/>
        <stop busStop="-7830975323" duration="30.00"/>
        <stop busStop="-7830975329" duration="30.00"/>
    </vehicle>

    <vehicle id="6_bus_8:2" type="pt_bus" depart="52.00" departLane="0" arrival="853.00">
        <route edges="398251732#0 398251732#1 398251732#2 398251727 398770661#0 398770661#1 398770661#2 398770653#0 398770653#1 398770653#2 398770660#0 398770660#1 404964732#0 404964732#1 398770658 398770659#1 398770659#2 398771136#0 398771136#1 398771139#0 398771139#2 398771139#3 404964730 398771138#0 398771138#1 37689821#0 37689821#1 37689821#2 37689821#3 37689821#4 398771137#0 384177635#0 384177635#1 -398778788#0 -404964747#2 -404964747#1 -404964747#0 -404964745#1 -398778797#1 -398778797#0 -404964746 -398414275 -398414264 -403828583 -398414260 -826085998 -398414301 -170301025#2 -170301025#0 -398414289 -398414283#0 -398414254 -398414286"/>
        <stop busStop="7830975330" duration="30.00"/>
        <stop busStop="7830975328" duration="30.00"/>
        <stop busStop="7830975322" duration="30.00"/>
        <stop busStop="7830975321" duration="30.00"/>
        <stop busStop="7830975318" duration="30.00"/>
        <stop busStop="-1419803127" duration="30.00"/>
        <stop busStop="-7830899742" duration="30.00"/>
        <stop busStop="-7814246324" duration="30.00"/>
    </vehicle>

    <vehicle id="7_bus_8:3" type="pt_bus" depart="57.00" departLane="0" arrival="901.00">
        <route edges="398251732#0 398251732#1 398251732#2 398251727 398770661#0 398770661#1 398770661#2 398770653#0 398770653#1 398770653#2 398770660#0 398770660#1 404964732#0 404964732#1 398770658 398770659#1 398770659#2 398771136#0 398771136#1 398771139#0 398771139#2 398771139#3 404964730 398771138#0 398771138#1 37689821#0 37689821#1 37689821#2 37689821#3 37689821#4 398771137#0 384177635#0 384177635#1 -398778788#0 -404964747#2 -404964747#1 -404964747#0 -404964745#1 -398778797#1 -398778797#0 -404964746 -398414275 -398414264 -403828583 -398414260 -826085998 -398414301 -170301025#2 -170301025#0 -398414289 -398414283#0 -398414254 -398414286"/>
        <stop busStop="7830975330" duration="30.00"/>
        <stop busStop="7830975328" duration="30.00"/>
        <stop busStop="7830975322" duration="30.00"/>
        <stop busStop="7830975321" duration="30.00"/>
        <stop busStop="7830975318" duration="30.00"/>
        <stop busStop="-1419803127" duration="30.00"/>
        <stop busStop="-7830899742" duration="30.00"/>
        <stop busStop="-7814246324" duration="30.00"/>
    </vehicle>

    <vehicle id="0_bus_Rapid_12:0" type="pt_bus" depart="3.00" departLane="0" arrival="1009.00">
        <route edges="398414286 398414254 398414283#0 398414289 170301025#0 170301025#2 398414301 826085998 398414260 403828583 398414264 398414275 404964746 398778797#0 398778797#1 404964745#1 404964747#0 404964747#1 404964747#2 398778788#0 398778791#1 398778791#2 350625891 398778795 -159156079 -398779237#1 -398779237#0 -398783439#2 -398783439#0 -288116301#10 -288116301#9 -288116301#8 -288116301#7 -288116301#6 -288116301#4 -288116301#1 -288116301#0 -398783438#1 -398783438#0 -398783440#2 -398783440#0 -400225297 -398784750 -398784743 -398784748 -398784749 -400225296 -398783441#2 -398783441#1 -398605037 -400219883 -398784751#0 -400219884 -398784747 -383987420#2 -383987420#1 -398605036#0 -398605038#5 -398605038#3 -398605038#2 -398605038#1 -398605038#0 -398605034 -398605035#1 -398605035#0 -398605039#3 -398605039#1 384176374#1 398593629#0 398593629#1 398593629#2 398593627#0 398593627#1 167923730#1 167923730#2 167923730#3 398601891 398601893 159117472 398601889 384176167#0 398603625#1 398603625#2 398603625#3 398603624#0 398603624#1 384175004#0 384175004#1 384175004#2 398605039#1 398605039#3"/>
        <stop busStop="7814287977" duration="30.00"/>
        <stop busStop="1419803136" duration="30.00"/>
        <stop busStop="-5001836121" duration="30.00"/>
        <stop busStop="-7814287978" duration="30.00"/>
        <stop busStop="-7814287979" duration="30.00"/>
        <stop busStop="-7814287980" duration="30.00"/>
        <stop busStop="7814287981" duration="30.00"/>
        <stop busStop="3960923706" duration="30.00"/>
        <stop busStop="7814287982" duration="30.00"/>
    </vehicle>

    <vehicle id="10_bus_14:0" type="pt_bus" depart="119.00" departLane="0" arrival="1013.00">
        <route edges="398227135#0 398227135#1 398227135#2 398227135#3 398227135#4 398227131#0 398227131#2 398227132#0 398227132#1 402664760 398227124 404954660#0 404954660#1 404954660#3 404954660#4 404954646 404954650 404954644 404954659#1 159608052#0 159608052#1 159608052#3 159608052#4 404954658 404954653 404954648 383946610 404954655 398007544 858147208 383946611#0 383946611#1 383946611#2 779866235 398025239 398025241 398025237 398025240 400213290 398025235 398025236#0 398025236#1 -398025234#1 -398025234#0 -400213287 -398025243 -398025238 -400213289 -398025242 -398025233 -400213288 -398025244#2 -398025244#1 -398023724#0 -398023723#10 -398023723#9 -398023723#7 -398023723#6 -398023723#5 -398023723#3 -398023723#2 -398023723#0 -159608006#1 -159608006#0 398023728#0 398023728#1 398023726 398023727#0 27656556 -429145365#2 -429145365#1 -429145365#0 -405294837 -405294835 -405294840 -405294834 -405294839 -405294842#0 227755303 405274409"/>
        <stop busStop="7855797067" duration="30.00"/>
        <stop busStop="7855797069" duration="30.00"/>
        <stop busStop="7855797070" duration="30.00"/>
        <stop busStop="7855797073" duration="30.00"/>
        <stop busStop="7855797076" duration="30.00"/>
        <stop busStop="-7855797078" duration="30.00"/>
        <stop busStop="-8004945298" duration="30.00"/>
        <stop busStop="8004945299" duration="30.00"/>
        <stop busStop="-8004945301" duration="30.00"/>
        <stop busStop="8004945304" duration="30.00"/>
    </vehicle>

    <vehicle id="43_bus_740:0" type="pt_bus" depart="535.00" departLane="0" arrival="1037.00">
        <route edges="398235795#1 457157033 237019948 398235779 -398235789#1 -398235789#0 -398235803#6 -398235803#5 -398235803#4 -398235803#3 -398235803#1 -398235803#0 -398235798 -522644537 -799521926 -398235781#0 -398235784 -403614790 -398235788#0 398235787#0 398235801#0 398235801#1 398235794 398235780#0 398235780#1 398235792 398235785 398235796 -398235797 -398235790 -398235782 -398231566#0 398231542 518127184 398231505 518127185 398231546#0 398231546#1 398231517 398231534 518117993 398231507 398231548 165568111#0 165568111#2 457147590 403655664#0 403655664#1 398231527 398231550#0 398231550#1 398231500 398231540 398231679#0 398231679#1 607194248#0 607194248#1 607194248#2 607194248#3"/>
        <stop busStop="-6278468524" duration="30.00"/>
    </vehicle>

    <vehicle id="40_bus_105:0" type="pt_bus" depart="497.00" departLane="0" arrival="1039.00">
        <route edges="742089606 398241777#0 398235795#1 457157033 237019948 398235779 -398235789#1 -398235789#0 -398235803#6 -398235803#5 -398235803#4 -398235803#3 -398235803#1 -398235803#0 398235803#0 398235803#1 398235803#3 398235803#4 398235803#5 398235803#6 398235789#0 -398235789#0 -398235803#6 -398235803#5 -398235803#4 -398235803#3 -398235803#1 -398235803#0 -398235798 -522644537 -799521926 -398235781#0 -398235784 -403614790 -398235788#0 161232662#0 161232662#1 124425038 124425029#0 124425029#1 124425029#2 398239880#0 398239909#1 398239909#2 398239909#3 398239887#0 398239887#1 398239893#0 398239893#1 398239885#0 398239885#1 398387380#1 398387380#2 398387375#0 398387375#1 132500432#0 132500432#1 398387373#0 398387373#1 398387378 398387384 398387387 398387395 398387390#0 398387390#1 384149484#1 384149484#2 398387407#0 398387407#1 398387407#2 384149483#0 384149483#1 159606600#1 398387401 398387392 398387398 398387396 398387397 398387393"/>
        <stop busStop="-6278468524" duration="30.00"/>
        <stop busStop="-6278468526" duration="30.00"/>
    </vehicle>

    <vehicle id="44_bus_710:0" type="pt_bus" depart="574.00" departLane="1" arrival="1078.00">
        <route edges="398231542 518127184 -518127184 -398231542 398231555 398235782 398235790 398235797 -398235796 -398235785 -398235792 -398235780#1 -398235780#0 -398235794 -398235801#1 -398235801#0 -398235787#0 398235788#0 398235788#1 398235784 398235781#0 799521926 522644537 398235798 398235803#0 -398235803#0 -398235798 -522644537 -799521926 -398235781#0 -398235784 -403614790 -398235788#0 398235787#0 398235801#0 398235801#1 398235794 398235780#0 398235780#1 398235792 398235785 398235796 -398235797 -398235790 -398235782 -398231566#0"/>
        <stop busStop="-6278468524" duration="30.00"/>
    </vehicle>

    <vehicle id="11_bus_14:1" type="pt_bus" depart="131.00" departLane="0" arrival="1084.00">
        <route edges="398227135#0 398227135#1 398227135#2 398227135#3 398227135#4 398227131#0 398227131#2 398227132#0 398227132#1 402664760 398227124 404954660#0 404954660#1 404954660#3 404954660#4 404954646 404954650 404954644 404954659#1 159608052#0 159608052#1 159608052#3 159608052#4 404954658 404954653 404954648 383946610 404954655 398007544 858147208 383946611#0 383946611#1 383946611#2 779866235 398025239 398025241 398025237 398025240 400213290 398025235 398025236#0 398025236#1 -398025234#1 -398025234#0 -400213287 -398025243 -398025238 -400213289 -398025242 -398025233 -400213288 -398025244#2 -398025244#1 -398023724#0 -398023723#10 -398023723#9 -398023723#7 -398023723#6 -398023723#5 -398023723#3 -398023723#2 -398023723#0 -159608006#1 -159608006#0 398023728#0 398023728#1 398023726 398023727#0 27656556 -429145365#2 -429145365#1 -429145365#0 -405294837 -405294835 -405294840 -405294834 -405294839 -405294842#0 227755303 405274409"/>
        <stop busStop="7855797067" duration="30.00"/>
        <stop busStop="7855797069" duration="30.00"/>
        <stop busStop="7855797070" duration="30.00"/>
        <stop busStop="7855797073" duration="30.00"/>
        <stop busStop="7855797076" duration="30.00"/>
        <stop busStop="-7855797078" duration="30.00"/>
        <stop busStop="-8004945298" duration="30.00"/>
        <stop busStop="8004945299" duration="30.00"/>
        <stop busStop="-8004945301" duration="30.00"/>
        <stop busStop="8004945304" duration="30.00"/>
    </vehicle>

    <vehicle id="39_bus_40:0" type="pt_bus" depart="485.00" departLane="0" arrival="1094.00">
        <route edges="398235795#1 457157033 237019948 398235779 -398235789#1 -398235789#0 -398235803#6 -398235803#5 -398235803#4 -398235803#3 -398235803#1 -398235803#0 -398235798 -522644537 -799521926 -398235781#0 -398235784 -403614790 -398235788#0 -398239908#3 -398239908#1 -398239908#0 -521665370 -398239907 -398239888 -398239900 398239900 398239888 398239907 521665370 403614589 398239908#1 398239908#3 398235788#0 398235788#1 398235784 398235781#0 799521926 522644537 398235798 398235803#0 -398235803#0 398235803#0 398235803#1 398235803#3 398235803#4 398235803#5 398235803#6 398235789#0 -398235789#0 -398235803#6 -398235803#5 -398235803#4 -398235803#3 -398235803#1 -398235803#0 -398235798 -522644537 -799521926 -398235781#0 -398235784 -403614790 -398235788#0 -398239908#3 -398239908#1 -398239908#0 -521665370 -398239907 -398239888 -398239900"/>
        <stop busStop="-6278468517" duration="30.00"/>
        <stop busStop="-6278468524" duration="30.00"/>
        <stop busStop="-6278468526" duration="30.00"/>
    </vehicle>

    <vehicle id="12_bus_14:2" type="pt_bus" depart="132.00" departLane="3" arrival="1189.00">
        <route edges="607283923 405294884 383014031 185399301 165880072#0 165880072#1 405294860#0 405294860#1 405294853 185399264#0 185399264#1 185399264#2 227755303 405274409 405294833#1 405294832 160505041 405294842#0 405294842#2 405294834 405294840 405294836 405294838 429145365#0 429145365#1 429145365#2 429145758 746826515#1 746826515#2 159608006#0 159608006#1 159608036 398023723#2 398023723#3 398023723#4 398023723#6 398023723#7 398023723#9 398023723#10 398023724#0 398025244#1 398025244#2 400213288 398025233 398025242 400213289 398025238 398025243 400213287 398025234#0 398025234#1 -398025236#1 -398025236#0 -398025235 -398025232 -398025240 -398025237 -398025241 -398025239 -779866235 -383946611#2 -383946611#1 -383946611#0 -858147208 -398007544 -404954655 -383946610 -404954648 -404954652 -404954658 -404954656 -159608052#3 -159608052#1 -159608052#0 -404954659#1 -404954659#0 -404954651 -404954647 -404954660#4 -404954660#3 -404954660#1 -404954660#0 -398227124 -402664760 -398227132#1 -398227132#0 -398227131#2 -398227131#0 -398227135#4 -398227135#3 -398227135#2 -398227135#1 -398227135#0"/>
        <stop busStop="8008082609" duration="30.00"/>
        <stop busStop="8004945303" duration="30.00"/>
        <stop busStop="8004945302" duration="30.00"/>
        <stop busStop="8004945300" duration="30.00"/>
        <stop busStop="8004945297" duration="30.00"/>
        <stop busStop="7855797077" duration="30.00"/>
        <stop busStop="-7855797075" duration="30.00"/>
        <stop busStop="-7855797074" duration="30.00"/>
        <stop busStop="-7855797072" duration="30.00"/>
        <stop busStop="-7855797071" duration="30.00"/>
        <stop busStop="-7855797068" duration="30.00"/>
        <stop busStop="-7855797066" duration="30.00"/>
    </vehicle>

    <vehicle id="13_bus_14:3" type="pt_bus" depart="137.00" departLane="3" arrival="1315.00">
        <route edges="607283923 405294884 383014031 185399301 165880072#0 165880072#1 405294860#0 405294860#1 405294853 185399264#0 185399264#1 185399264#2 227755303 405274409 405294833#1 405294832 160505041 405294842#0 405294842#2 405294834 405294840 405294836 405294838 429145365#0 429145365#1 429145365#2 429145758 746826515#1 746826515#2 159608006#0 159608006#1 159608036 398023723#2 398023723#3 398023723#4 398023723#6 398023723#7 398023723#9 398023723#10 398023724#0 398025244#1 398025244#2 400213288 398025233 398025242 400213289 398025238 398025243 400213287 398025234#0 398025234#1 -398025236#1 -398025236#0 -398025235 -398025232 -398025240 -398025237 -398025241 -398025239 -779866235 -383946611#2 -383946611#1 -383946611#0 -858147208 -398007544 -404954655 -383946610 -404954648 -404954652 -404954658 -404954656 -159608052#3 -159608052#1 -159608052#0 -404954659#1 -404954659#0 -404954651 -404954647 -404954660#4 -404954660#3 -404954660#1 -404954660#0 -398227124 -402664760 -398227132#1 -398227132#0 -398227131#2 -398227131#0 -398227135#4 -398227135#3 -398227135#2 -398227135#1 -398227135#0"/>
        <stop busStop="8008082609" duration="30.00"/>
        <stop busStop="8004945303" duration="30.00"/>
        <stop busStop="8004945302" duration="30.00"/>
        <stop busStop="8004945300" duration="30.00"/>
        <stop busStop="8004945297" duration="30.00"/>
        <stop busStop="7855797077" duration="30.00"/>
        <stop busStop="-7855797075" duration="30.00"/>
        <stop busStop="-7855797074" duration="30.00"/>
        <stop busStop="-7855797072" duration="30.00"/>
        <stop busStop="-7855797071" duration="30.00"/>
        <stop busStop="-7855797068" duration="30.00"/>
        <stop busStop="-7855797066" duration="30.00"/>
    </vehicle>

    <vehicle id="45_bus_Leimert/Slauson:0" type="pt_bus" depart="583.00" departLane="0" arrival="1362.00">
        <route edges="398235795#1 457157033 237019948 398235779 -398235789#1 -398235789#0 -398235803#6 -398235803#5 -398235803#4 -398235803#3 -398235803#1 -398235803#0 -398235798 -522644537 -799521926 -398235781#0 -398235784 -403614790 -398235788#0 -398239908#3 -398239908#1 -398239908#0 -521665370 -398239907 -398239888 -398239900 398239900 398239888 398239907 521665370 403614589 398239908#1 398239908#3 398235788#0 398235788#1 398235784 398235781#0 799521926 522644537 398235798 398235803#0 -398235803#0 398235803#0 398235803#1 398235803#3 398235803#4 398235803#5 398235803#6 398235789#0 -398235789#0 -398235803#6 -398235803#5 -398235803#4 -398235803#3 -398235803#1 -398235803#0 -398235798 -522644537 -799521926 -398235781#0 -398235784 -403614790 -398235788#0 -398239908#3 -398239908#1 -398239908#0 -521665370 -398239907 -398239888 -398239900"/>
        <stop busStop="-6278468517" duration="30.00"/>
        <stop busStop="-6278468524" duration="30.00"/>
        <stop busStop="-6278468526" duration="30.00"/>
    </vehicle>

    <vehicle id="38_light_rail_806:1" type="pt_light_rail" depart="484.00" departLane="0" arrival="1420.00">
        <route edges="650427046 291399484 650427047 30968183#1 30968183#2 30968183#3 30968183#4 30968183#5 30968183#6 30968183#7 30968183#8 30968183#9 30968183#10 267159405#1 267159405#2 267159396 267159401#1 209115130 650427053 209115127#1 209115127#3 209115133 209115132#0 209115132#1 209115129 392024718#0 392024718#1 392024718#2 392024718#3 392024718#4"/>
        <stop busStop="4400281323" duration="30.00"/>
        <stop busStop="4400281335" duration="30.00"/>
        <stop busStop="4400281333" duration="30.00"/>
        <stop busStop="2193456402" duration="30.00"/>
        <stop busStop="4400281331" duration="30.00"/>
        <stop busStop="2193456387" duration="30.00"/>
        <stop busStop="2193446255" duration="30.00"/>
        <stop busStop="2193446260" duration="30.00"/>
        <stop busStop="2193439978" duration="30.00"/>
    </vehicle>

    <vehicle id="37_light_rail_806:0" type="pt_light_rail" depart="483.00" departLane="0" arrival="1461.00">
        <route edges="24924334#0 24924334#1 24924334#2 24924334#3 24924334#4 51805349 28902266#0 28902266#1 148818231 148818232 123803976#1 123803976#2 72839540 650427056 267159406#1 346997704#0 346997704#1 663272236 346997704#3 346997704#4 30968197#1 30968197#2 30968197#3 30968197#4 30968197#5 30968197#6 30968197#7 30968197#8 30968197#9 30968197#10 346996829 346998176"/>
        <stop busStop="2193439976" duration="30.00"/>
        <stop busStop="2193439983" duration="30.00"/>
        <stop busStop="2193446233" duration="30.00"/>
        <stop busStop="2193446235" duration="30.00"/>
        <stop busStop="4400281322" duration="30.00"/>
        <stop busStop="4400281332" duration="30.00"/>
        <stop busStop="4400281315" duration="30.00"/>
        <stop busStop="4400281334" duration="30.00"/>
        <stop busStop="3534427676" duration="30.00"/>
        <stop busStop="4400281324" duration="30.00"/>
    </vehicle>

    <vehicle id="20_bus_2:1" type="pt_bus" depart="227.00" departLane="0" arrival="1476.00">
        <route edges="864841608#0 864841608#1 732479174#0 732479174#1 384148147 405294868 405301803 866541879 45580331 759233175#0 759233175#1 405301793 185735925 405301767 384147488 405301811 263305807#0 405301796#1 -604159982 -405301807#0 384143512 384143510#0 398036712 405093852#0 405093852#1 149009283 384168789 185399265 405294852 405294856 405294855 184870606 384168208 27957950#1 405294849 384165745 405294847 185399266#0 185399266#1 405294850 136913616 405294843 136913615#0 136913615#1 136913615#2 136913615#3 136913615#4 136913615#5 27958312#0 27958312#1 27958312#2 27958312#3 27958312#4 27958312#6 27958312#7 829782863#0 829782863#1 398009815 404901650 867901253#0 867901253#2 159764473#0 159764473#1 159764473#2 159764473#3 159764473#4 159764473#5 159764473#6 398009201#1 398009201#2 398007955#0 398007955#1 398007955#2 398007955#3 398007955#4 398007955#5 398007955#6 398007955#7 383955157 398007954#0 398007954#1 -384161571#2 -384161571#1 -384161571#0 -404956259#1 -404956286 -404956217 -404956197 -404956194#1 -404956262#0 -779866238 -404956191 -404956296#3 -404956296#2 -404956296#0 384161992 383946356#0 383946356#1 383946356#2 383946356#3 383946358#1 383946358#2 398209673 398209672#1 398209672#2 55336167 55336163"/>
        <stop busStop="8008494088@11806286" duration="30.00"/>
        <stop busStop="8048337185" duration="30.00"/>
        <stop busStop="8007965359" duration="30.00"/>
        <stop busStop="8007965357" duration="30.00"/>
        <stop busStop="8004860196" duration="30.00"/>
        <stop busStop="8004860193" duration="30.00"/>
        <stop busStop="8004860191" duration="30.00"/>
        <stop busStop="8004860190" duration="30.00"/>
        <stop busStop="8004860187" duration="30.00"/>
        <stop busStop="7855687905" duration="30.00"/>
        <stop busStop="-7855686332" duration="30.00"/>
        <stop busStop="-7855686333" duration="30.00"/>
        <stop busStop="7855686335" duration="30.00"/>
        <stop busStop="8001061791" duration="30.00"/>
    </vehicle>

    <vehicle id="2_bus_17:0" type="pt_bus" depart="15.00" departLane="0" arrival="1493.00">
        <route edges="398588235#1 865180372#0 865180372#1 150945304#0 150945304#1 383989690 13306173#0 13306173#1 745530742#0 745530742#1 398584903#1 398583276 398583268 398152534 24655523#0 24655523#1 24655523#2 24655523#3 24655523#4 24655523#5 398579017 393132599#0 393132599#1 393132599#2 393132599#3 393132599#4 393132599#5 393132599#6 393132599#7 456747069#0 456747069#1 456746873#0 456746873#1 456746873#2 456746737#0 456746737#2 607284019 150913661#0 150913661#1 398579018 398579020 398579027#0 398579027#1 398579027#2 398579023 398579021 398579025#0 398579025#1 398579022 398579019 398579024#0 398579024#1 398579026#0 398579026#1 136914688#0 136914688#1 136914688#2 136914688#3 136914688#4 136914688#5 136914688#6 398579028#0 398579028#1 384177077#1 398785882 404964739 150913645 404964737#0 404964737#1 398785873 398785876 398785884#0 398785884#1 398785883 398785875 398785881 404964740 398785877 398785880 404964738 398785874 398785885#0 398785885#2 398785878#0 398785878#1 428122885 428122812 338171897#0 338171897#1 -607246632#0 -398754261 -398754268#8 -398754268#7 -398754268#6 -398754268#5 -398754268#4 -398754268#3 -398754268#2 -398754268#1 -398754268#0 -398754263#1 -398754264#0 -398754266 -398754262 -398754265#1 -398754265#0 -398754267#1 -398754267#0 -181978103 -398253234#1 -398253234#0 -404975235 -398253242 -398253238 -398253229 -398253258#2 398253258#2 398253229 398253238 398253242 404975235 398253234#0 398253234#1 181978103 398770660#0 398770660#1 404964732#0 404964732#1 398770658 398770659#1 398770659#2 398775796#0 398775796#1 398775796#2 338171896#0 338171896#1 338171896#2 338171896#3 338171896#4 338171896#5 759476634#1 759476634#2 759476634#3 759476634#4 759476634#5 759476634#7 404988222#0 606824621#0 606824621#1 606824621#2"/>
        <stop busStop="7831489194" duration="30.00"/>
        <stop busStop="7831489193" duration="30.00"/>